<?xml version="1.0" encoding="UTF-8"?>

<!-- generated on 2024-10-07 18:45:05 by Eclipse SUMO sumo Version 1.20.0
<configuration xmlns:xsi="http://www.w3.org/2001/XMLSchema-instance" xsi:noNamespaceSchemaLocation="http://sumo.dlr.de/xsd/sumoConfiguration.xsd">

    <input>
        <net-file value="maps/city1.net.xml"/>
        <route-files value="maps/city1.rou.xml"/>
    </input>

    <output>
        <tripinfo-output value="tripinfo.xml"/>
    </output>

    <time>
        <begin value="0"/>
        <end value="200"/>
    </time>

    <report>
        <verbose value="true"/>
        <no-step-log value="true"/>
    </report>

    <traci_server>
        <remote-port value="52756"/>
    </traci_server>

</configuration>
-->

<tripinfos xmlns:xsi="http://www.w3.org/2001/XMLSchema-instance" xsi:noNamespaceSchemaLocation="http://sumo.dlr.de/xsd/tripinfo_file.xsd">
    <tripinfo id="13" depart="13.00" departLane="-gneE14_0" departPos="5.10" departSpeed="0.00" departDelay="0.00" arrival="23.00" arrivalLane="-gneE14_0" arrivalPos="89.60" arrivalSpeed="14.27" duration="10.00" routeLength="84.50" waitingTime="0.00" waitingCount="0" stopTime="0.00" timeLoss="3.61" rerouteNo="0" devices="tripinfo_13" vType="DEFAULT_VEHTYPE" speedFactor="1.09" vaporized=""/>
    <tripinfo id="8" depart="8.00" departLane="-gneE26_0" departPos="5.10" departSpeed="0.00" departDelay="0.00" arrival="61.00" arrivalLane="gneE14_0" arrivalPos="89.60" arrivalSpeed="14.14" duration="53.00" routeLength="391.59" waitingTime="14.00" waitingCount="1" stopTime="0.00" timeLoss="25.30" rerouteNo="0" devices="tripinfo_8" vType="DEFAULT_VEHTYPE" speedFactor="1.05" vaporized=""/>
    <tripinfo id="30" depart="30.00" departLane="gneE9_0" departPos="5.10" departSpeed="0.00" departDelay="0.00" arrival="65.00" arrivalLane="gneE2_0" arrivalPos="185.60" arrivalSpeed="12.88" duration="35.00" routeLength="379.13" waitingTime="0.00" waitingCount="0" stopTime="0.00" timeLoss="5.62" rerouteNo="0" devices="tripinfo_30" vType="DEFAULT_VEHTYPE" speedFactor="0.97" vaporized=""/>
    <tripinfo id="20" depart="20.00" departLane="gneE22_0" departPos="5.10" departSpeed="0.00" departDelay="0.00" arrival="76.00" arrivalLane="-gneE10_0" arrivalPos="96.80" arrivalSpeed="7.07" duration="56.00" routeLength="579.33" waitingTime="0.00" waitingCount="0" stopTime="0.00" timeLoss="10.37" rerouteNo="0" devices="tripinfo_20" vType="DEFAULT_VEHTYPE" speedFactor="0.93" vaporized=""/>
    <tripinfo id="4" depart="4.00" departLane="-gneE5_0" departPos="5.10" departSpeed="0.00" departDelay="0.00" arrival="91.00" arrivalLane="-gneE1_0" arrivalPos="85.60" arrivalSpeed="13.08" duration="87.00" routeLength="374.92" waitingTime="48.00" waitingCount="1" stopTime="0.00" timeLoss="58.12" rerouteNo="0" devices="tripinfo_4" vType="DEFAULT_VEHTYPE" speedFactor="1.01" vaporized=""/>
    <tripinfo id="47" depart="49.00" departLane="-gneE13_0" departPos="5.10" departSpeed="0.00" departDelay="2.00" arrival="91.00" arrivalLane="-gneE38_0" arrivalPos="296.80" arrivalSpeed="15.90" duration="42.00" routeLength="490.87" waitingTime="0.00" waitingCount="0" stopTime="0.00" timeLoss="10.65" rerouteNo="0" devices="tripinfo_47" vType="DEFAULT_VEHTYPE" speedFactor="1.17" vaporized=""/>
    <tripinfo id="7" depart="7.00" departLane="gneE19_0" departPos="5.10" departSpeed="0.00" departDelay="0.00" arrival="92.00" arrivalLane="gneE11_0" arrivalPos="92.80" arrivalSpeed="11.00" duration="85.00" routeLength="678.58" waitingTime="7.00" waitingCount="1" stopTime="0.00" timeLoss="22.74" rerouteNo="0" devices="tripinfo_7" vType="DEFAULT_VEHTYPE" speedFactor="0.83" vaporized=""/>
    <tripinfo id="0" depart="0.00" departLane="gneE18_0" departPos="5.10" departSpeed="0.00" departDelay="0.00" arrival="93.00" arrivalLane="-gneE1_0" arrivalPos="85.60" arrivalSpeed="14.06" duration="93.00" routeLength="682.01" waitingTime="30.00" waitingCount="1" stopTime="0.00" timeLoss="43.82" rerouteNo="0" devices="tripinfo_0" vType="DEFAULT_VEHTYPE" speedFactor="1.06" vaporized=""/>
    <tripinfo id="90" depart="90.00" departLane="gneE23_0" departPos="5.10" departSpeed="0.00" departDelay="0.00" arrival="100.00" arrivalLane="gneE23_0" arrivalPos="89.60" arrivalSpeed="12.93" duration="10.00" routeLength="84.50" waitingTime="0.00" waitingCount="0" stopTime="0.00" timeLoss="3.46" rerouteNo="0" devices="tripinfo_90" vType="DEFAULT_VEHTYPE" speedFactor="1.02" vaporized=""/>
    <tripinfo id="52" depart="52.00" departLane="-gneE29_0" departPos="5.10" departSpeed="0.00" departDelay="0.00" arrival="103.00" arrivalLane="gneE21_0" arrivalPos="87.62" arrivalSpeed="8.75" duration="51.00" routeLength="413.15" waitingTime="8.00" waitingCount="1" stopTime="0.00" timeLoss="22.58" rerouteNo="0" devices="tripinfo_52" vType="DEFAULT_VEHTYPE" speedFactor="1.10" vaporized=""/>
    <tripinfo id="17" depart="17.00" departLane="-gneE36_0" departPos="5.10" departSpeed="0.00" departDelay="0.00" arrival="107.00" arrivalLane="gneE12_0" arrivalPos="85.60" arrivalSpeed="14.75" duration="90.00" routeLength="687.49" waitingTime="26.00" waitingCount="1" stopTime="0.00" timeLoss="44.51" rerouteNo="0" devices="tripinfo_17" vType="DEFAULT_VEHTYPE" speedFactor="1.12" vaporized=""/>
    <tripinfo id="27" depart="27.00" departLane="gneE19_0" departPos="5.10" departSpeed="0.00" departDelay="0.00" arrival="117.00" arrivalLane="gneE17_0" arrivalPos="92.80" arrivalSpeed="16.01" duration="90.00" routeLength="585.39" waitingTime="33.00" waitingCount="1" stopTime="0.00" timeLoss="51.35" rerouteNo="0" devices="tripinfo_27" vType="DEFAULT_VEHTYPE" speedFactor="1.16" vaporized=""/>
    <tripinfo id="9" depart="9.00" departLane="gneE3_0" departPos="5.10" departSpeed="0.00" departDelay="0.00" arrival="121.00" arrivalLane="-gneE0_0" arrivalPos="92.80" arrivalSpeed="11.76" duration="112.00" routeLength="671.38" waitingTime="39.00" waitingCount="1" stopTime="0.00" timeLoss="54.85" rerouteNo="0" devices="tripinfo_9" vType="DEFAULT_VEHTYPE" speedFactor="0.89" vaporized=""/>
    <tripinfo id="26" depart="26.00" departLane="-gneE29_0" departPos="5.10" departSpeed="0.00" departDelay="0.00" arrival="127.00" arrivalLane="gneE5_0" arrivalPos="85.60" arrivalSpeed="11.97" duration="101.00" routeLength="707.67" waitingTime="27.00" waitingCount="1" stopTime="0.00" timeLoss="42.65" rerouteNo="0" devices="tripinfo_26" vType="DEFAULT_VEHTYPE" speedFactor="0.94" vaporized=""/>
    <tripinfo id="25" depart="25.00" departLane="-gneE34_0" departPos="5.10" departSpeed="0.00" departDelay="0.00" arrival="128.00" arrivalLane="-gneE22_0" arrivalPos="85.60" arrivalSpeed="11.18" duration="103.00" routeLength="580.18" waitingTime="36.00" waitingCount="1" stopTime="0.00" timeLoss="56.66" rerouteNo="0" devices="tripinfo_25" vType="DEFAULT_VEHTYPE" speedFactor="0.94" vaporized=""/>
    <tripinfo id="97" depart="97.00" departLane="-gneE6_0" departPos="5.10" departSpeed="0.00" departDelay="0.00" arrival="128.00" arrivalLane="gneE34_0" arrivalPos="85.60" arrivalSpeed="13.50" duration="31.00" routeLength="282.33" waitingTime="0.00" waitingCount="0" stopTime="0.00" timeLoss="10.79" rerouteNo="0" devices="tripinfo_97" vType="DEFAULT_VEHTYPE" speedFactor="1.06" vaporized=""/>
    <tripinfo id="94" depart="94.00" departLane="-gneE24_0" departPos="5.10" departSpeed="0.00" departDelay="0.00" arrival="130.00" arrivalLane="-gneE6_0" arrivalPos="92.80" arrivalSpeed="12.94" duration="36.00" routeLength="380.39" waitingTime="0.00" waitingCount="0" stopTime="0.00" timeLoss="6.80" rerouteNo="0" devices="tripinfo_94" vType="DEFAULT_VEHTYPE" speedFactor="0.97" vaporized=""/>
    <tripinfo id="43" depart="43.00" departLane="gneE9_0" departPos="5.10" departSpeed="0.00" departDelay="0.00" arrival="132.00" arrivalLane="gneE1_0" arrivalPos="85.60" arrivalSpeed="4.32" duration="89.00" routeLength="778.50" waitingTime="20.00" waitingCount="1" stopTime="0.00" timeLoss="39.16" rerouteNo="0" devices="tripinfo_43" vType="DEFAULT_VEHTYPE" speedFactor="1.18" vaporized=""/>
    <tripinfo id="33" depart="33.00" departLane="-gneE26_0" departPos="5.10" departSpeed="0.00" departDelay="0.00" arrival="136.00" arrivalLane="-gneE10_0" arrivalPos="96.80" arrivalSpeed="10.51" duration="103.00" routeLength="491.90" waitingTime="46.00" waitingCount="2" stopTime="0.00" timeLoss="59.52" rerouteNo="0" devices="tripinfo_33" vType="DEFAULT_VEHTYPE" speedFactor="0.83" vaporized=""/>
    <tripinfo id="71" depart="71.00" departLane="-gneE28_0" departPos="5.10" departSpeed="0.00" departDelay="0.00" arrival="138.00" arrivalLane="gneE34_0" arrivalPos="85.60" arrivalSpeed="14.34" duration="67.00" routeLength="699.16" waitingTime="0.00" waitingCount="0" stopTime="0.00" timeLoss="18.39" rerouteNo="0" devices="tripinfo_71" vType="DEFAULT_VEHTYPE" speedFactor="1.10" vaporized=""/>
    <tripinfo id="19" depart="19.00" departLane="gneE35_0" departPos="5.10" departSpeed="0.00" departDelay="0.00" arrival="139.00" arrivalLane="gneE13_0" arrivalPos="92.80" arrivalSpeed="13.38" duration="120.00" routeLength="789.32" waitingTime="40.00" waitingCount="2" stopTime="0.00" timeLoss="61.42" rerouteNo="0" devices="tripinfo_19" vType="DEFAULT_VEHTYPE" speedFactor="0.99" vaporized=""/>
    <tripinfo id="56" depart="56.00" departLane="gneE0_0" departPos="5.10" departSpeed="0.00" departDelay="0.00" arrival="139.00" arrivalLane="-gneE20_0" arrivalPos="92.80" arrivalSpeed="14.36" duration="83.00" routeLength="284.16" waitingTime="52.00" waitingCount="1" stopTime="0.00" timeLoss="62.90" rerouteNo="0" devices="tripinfo_56" vType="DEFAULT_VEHTYPE" speedFactor="1.09" vaporized=""/>
    <tripinfo id="38" depart="38.00" departLane="gneE4_0" departPos="5.10" departSpeed="0.00" departDelay="0.00" arrival="141.00" arrivalLane="-gneE7_0" arrivalPos="92.80" arrivalSpeed="11.77" duration="103.00" routeLength="587.17" waitingTime="34.00" waitingCount="1" stopTime="0.00" timeLoss="53.68" rerouteNo="0" devices="tripinfo_38" vType="DEFAULT_VEHTYPE" speedFactor="0.92" vaporized=""/>
    <tripinfo id="85" depart="93.00" departLane="gneE5_0" departPos="5.10" departSpeed="0.00" departDelay="8.00" arrival="142.00" arrivalLane="gneE13_0" arrivalPos="92.80" arrivalSpeed="12.49" duration="49.00" routeLength="287.49" waitingTime="16.00" waitingCount="1" stopTime="0.00" timeLoss="26.17" rerouteNo="0" devices="tripinfo_85" vType="DEFAULT_VEHTYPE" speedFactor="0.94" vaporized=""/>
    <tripinfo id="11" depart="11.00" departLane="-gneE32_0" departPos="5.10" departSpeed="0.00" departDelay="0.00" arrival="147.00" arrivalLane="-gneE19_0" arrivalPos="92.80" arrivalSpeed="11.73" duration="136.00" routeLength="1010.21" waitingTime="23.00" waitingCount="2" stopTime="0.00" timeLoss="48.81" rerouteNo="0" devices="tripinfo_11" vType="DEFAULT_VEHTYPE" speedFactor="0.86" vaporized=""/>
    <tripinfo id="74" depart="74.00" departLane="-gneE24_0" departPos="5.10" departSpeed="0.00" departDelay="0.00" arrival="147.00" arrivalLane="-gneE3_0" arrivalPos="185.60" arrivalSpeed="11.36" duration="73.00" routeLength="674.81" waitingTime="1.00" waitingCount="1" stopTime="0.00" timeLoss="16.38" rerouteNo="0" devices="tripinfo_74" vType="DEFAULT_VEHTYPE" speedFactor="0.90" vaporized=""/>
    <tripinfo id="96" depart="96.00" departLane="-gneE27_0" departPos="5.10" departSpeed="0.00" departDelay="0.00" arrival="150.00" arrivalLane="gneE5_0" arrivalPos="85.60" arrivalSpeed="12.26" duration="54.00" routeLength="587.38" waitingTime="0.00" waitingCount="0" stopTime="0.00" timeLoss="6.83" rerouteNo="0" devices="tripinfo_96" vType="DEFAULT_VEHTYPE" speedFactor="0.94" vaporized=""/>
    <tripinfo id="24" depart="24.00" departLane="gneE18_0" departPos="5.10" departSpeed="0.00" departDelay="0.00" arrival="151.00" arrivalLane="-gneE35_0" arrivalPos="292.80" arrivalSpeed="12.09" duration="127.00" routeLength="889.00" waitingTime="33.00" waitingCount="1" stopTime="0.00" timeLoss="50.35" rerouteNo="0" devices="tripinfo_24" vType="DEFAULT_VEHTYPE" speedFactor="0.88" vaporized=""/>
    <tripinfo id="117" depart="117.00" departLane="-gneE27_0" departPos="5.10" departSpeed="0.00" departDelay="0.00" arrival="152.00" arrivalLane="-gneE17_0" arrivalPos="92.80" arrivalSpeed="13.04" duration="35.00" routeLength="387.59" waitingTime="0.00" waitingCount="0" stopTime="0.00" timeLoss="5.91" rerouteNo="0" devices="tripinfo_117" vType="DEFAULT_VEHTYPE" speedFactor="1.02" vaporized=""/>
    <tripinfo id="6" depart="6.00" departLane="-gneE10_0" departPos="5.10" departSpeed="0.00" departDelay="0.00" arrival="155.00" arrivalLane="-gneE21_0" arrivalPos="87.62" arrivalSpeed="13.66" duration="149.00" routeLength="780.42" waitingTime="74.00" waitingCount="1" stopTime="0.00" timeLoss="92.85" rerouteNo="0" devices="tripinfo_6" vType="DEFAULT_VEHTYPE" speedFactor="1.03" vaporized=""/>
    <tripinfo id="127" depart="144.00" departLane="gneE9_0" departPos="5.10" departSpeed="0.00" departDelay="17.00" arrival="155.00" arrivalLane="gneE9_0" arrivalPos="89.60" arrivalSpeed="12.02" duration="11.00" routeLength="84.50" waitingTime="0.00" waitingCount="0" stopTime="0.00" timeLoss="3.45" rerouteNo="0" devices="tripinfo_127" vType="DEFAULT_VEHTYPE" speedFactor="0.91" vaporized=""/>
    <tripinfo id="76" depart="77.00" departLane="-gneE6_0" departPos="5.10" departSpeed="0.00" departDelay="1.00" arrival="158.00" arrivalLane="gneE10_0" arrivalPos="96.80" arrivalSpeed="15.37" duration="81.00" routeLength="596.03" waitingTime="15.00" waitingCount="1" stopTime="0.00" timeLoss="41.75" rerouteNo="0" devices="tripinfo_76" vType="DEFAULT_VEHTYPE" speedFactor="1.14" vaporized=""/>
    <tripinfo id="138" depart="138.00" departLane="-gneE17_0" departPos="5.10" departSpeed="0.00" departDelay="0.00" arrival="158.00" arrivalLane="gneE12_0" arrivalPos="85.60" arrivalSpeed="13.78" duration="20.00" routeLength="187.49" waitingTime="0.00" waitingCount="0" stopTime="0.00" timeLoss="5.46" rerouteNo="0" devices="tripinfo_138" vType="DEFAULT_VEHTYPE" speedFactor="1.01" vaporized=""/>
    <tripinfo id="29" depart="31.00" departLane="-gneE22_0" departPos="5.10" departSpeed="0.00" departDelay="2.00" arrival="172.00" arrivalLane="-gneE38_0" arrivalPos="296.80" arrivalSpeed="12.80" duration="141.00" routeLength="883.56" waitingTime="52.00" waitingCount="2" stopTime="0.00" timeLoss="76.10" rerouteNo="0" devices="tripinfo_29" vType="DEFAULT_VEHTYPE" speedFactor="1.01" vaporized=""/>
    <tripinfo id="73" depart="73.00" departLane="gneE10_0" departPos="5.10" departSpeed="0.00" departDelay="0.00" arrival="176.00" arrivalLane="gneE26_0" arrivalPos="92.80" arrivalSpeed="12.97" duration="103.00" routeLength="491.90" waitingTime="49.00" waitingCount="2" stopTime="0.00" timeLoss="66.75" rerouteNo="0" devices="tripinfo_73" vType="DEFAULT_VEHTYPE" speedFactor="1.00" vaporized=""/>
    <tripinfo id="15" depart="15.00" departLane="gneE3_0" departPos="5.10" departSpeed="0.00" departDelay="0.00" arrival="177.00" arrivalLane="gneE26_0" arrivalPos="92.80" arrivalSpeed="14.18" duration="162.00" routeLength="782.22" waitingTime="68.00" waitingCount="4" stopTime="0.00" timeLoss="105.87" rerouteNo="0" devices="tripinfo_15" vType="DEFAULT_VEHTYPE" speedFactor="1.03" vaporized=""/>
    <tripinfo id="28" depart="28.00" departLane="-gneE22_0" departPos="5.10" departSpeed="0.00" departDelay="0.00" arrival="179.00" arrivalLane="gneE26_0" arrivalPos="92.80" arrivalSpeed="14.10" duration="151.00" routeLength="787.27" waitingTime="64.00" waitingCount="3" stopTime="0.00" timeLoss="92.69" rerouteNo="0" devices="tripinfo_28" vType="DEFAULT_VEHTYPE" speedFactor="1.02" vaporized=""/>
    <tripinfo id="39" depart="40.00" departLane="-gneE28_0" departPos="5.10" departSpeed="0.00" departDelay="1.00" arrival="183.00" arrivalLane="-gneE24_0" arrivalPos="85.60" arrivalSpeed="12.71" duration="143.00" routeLength="1004.00" waitingTime="31.00" waitingCount="2" stopTime="0.00" timeLoss="62.48" rerouteNo="0" devices="tripinfo_39" vType="DEFAULT_VEHTYPE" speedFactor="0.95" vaporized=""/>
    <tripinfo id="121" depart="121.00" departLane="gneE1_0" departPos="5.10" departSpeed="0.00" departDelay="0.00" arrival="183.00" arrivalLane="gneE5_0" arrivalPos="85.60" arrivalSpeed="10.40" duration="62.00" routeLength="374.92" waitingTime="10.00" waitingCount="1" stopTime="0.00" timeLoss="27.54" rerouteNo="0" devices="tripinfo_121" vType="DEFAULT_VEHTYPE" speedFactor="0.83" vaporized=""/>
    <tripinfo id="10" depart="12.00" departLane="gneE3_0" departPos="5.10" departSpeed="0.00" departDelay="2.00" arrival="188.00" arrivalLane="gneE24_0" arrivalPos="85.60" arrivalSpeed="6.81" duration="176.00" routeLength="669.65" waitingTime="92.00" waitingCount="4" stopTime="0.00" timeLoss="122.25" rerouteNo="0" devices="tripinfo_10" vType="DEFAULT_VEHTYPE" speedFactor="0.94" vaporized=""/>
    <tripinfo id="129" depart="129.00" departLane="-gneE28_0" departPos="5.10" departSpeed="0.00" departDelay="0.00" arrival="189.00" arrivalLane="gneE5_0" arrivalPos="85.60" arrivalSpeed="14.18" duration="60.00" routeLength="604.32" waitingTime="4.00" waitingCount="1" stopTime="0.00" timeLoss="17.24" rerouteNo="0" devices="tripinfo_129" vType="DEFAULT_VEHTYPE" speedFactor="1.10" vaporized=""/>
    <tripinfo id="48" depart="59.00" departLane="gneE9_0" departPos="5.10" departSpeed="0.00" departDelay="11.00" arrival="194.00" arrivalLane="gneE10_0" arrivalPos="96.80" arrivalSpeed="13.08" duration="135.00" routeLength="1076.72" waitingTime="33.00" waitingCount="1" stopTime="0.00" timeLoss="54.53" rerouteNo="0" devices="tripinfo_48" vType="DEFAULT_VEHTYPE" speedFactor="0.99" vaporized=""/>
    <tripinfo id="124" depart="124.00" departLane="gneE2_0" departPos="5.10" departSpeed="0.00" departDelay="0.00" arrival="195.00" arrivalLane="-gneE3_0" arrivalPos="185.60" arrivalSpeed="14.14" duration="71.00" routeLength="480.08" waitingTime="20.00" waitingCount="1" stopTime="0.00" timeLoss="37.21" rerouteNo="0" devices="tripinfo_124" vType="DEFAULT_VEHTYPE" speedFactor="1.09" vaporized=""/>
    <tripinfo id="164" depart="168.00" departLane="gneE3_0" departPos="5.10" departSpeed="0.00" departDelay="4.00" arrival="196.00" arrivalLane="gneE34_0" arrivalPos="85.60" arrivalSpeed="15.06" duration="28.00" routeLength="280.29" waitingTime="0.00" waitingCount="0" stopTime="0.00" timeLoss="7.98" rerouteNo="0" devices="tripinfo_164" vType="DEFAULT_VEHTYPE" speedFactor="1.10" vaporized=""/>
    <tripinfo id="87" depart="88.00" departLane="gneE3_0" departPos="5.10" departSpeed="0.00" departDelay="1.00" arrival="204.00" arrivalLane="-gneE21_0" arrivalPos="87.62" arrivalSpeed="11.45" duration="116.00" routeLength="576.83" waitingTime="49.00" waitingCount="2" stopTime="0.00" timeLoss="67.88" rerouteNo="0" devices="tripinfo_87" vType="DEFAULT_VEHTYPE" speedFactor="0.91" vaporized=""/>
    <tripinfo id="141" depart="144.00" departLane="gneE18_0" departPos="5.10" departSpeed="0.00" departDelay="3.00" arrival="205.00" arrivalLane="-gneE25_0" arrivalPos="92.80" arrivalSpeed="12.28" duration="61.00" routeLength="284.16" waitingTime="17.00" waitingCount="2" stopTime="0.00" timeLoss="38.04" rerouteNo="0" devices="tripinfo_141" vType="DEFAULT_VEHTYPE" speedFactor="0.96" vaporized=""/>
    <tripinfo id="146" depart="147.00" departLane="gneE18_0" departPos="5.10" departSpeed="0.00" departDelay="1.00" arrival="207.00" arrivalLane="-gneE25_0" arrivalPos="92.80" arrivalSpeed="14.36" duration="60.00" routeLength="284.16" waitingTime="15.00" waitingCount="2" stopTime="0.00" timeLoss="40.13" rerouteNo="0" devices="tripinfo_146" vType="DEFAULT_VEHTYPE" speedFactor="1.10" vaporized=""/>
    <tripinfo id="31" depart="31.00" departLane="gneE11_0" departPos="5.10" departSpeed="0.00" departDelay="0.00" arrival="208.00" arrivalLane="gneE23_0" arrivalPos="89.60" arrivalSpeed="11.20" duration="177.00" routeLength="875.51" waitingTime="83.00" waitingCount="2" stopTime="0.00" timeLoss="104.66" rerouteNo="0" devices="tripinfo_31" vType="DEFAULT_VEHTYPE" speedFactor="0.89" vaporized=""/>
    <tripinfo id="125" depart="125.00" departLane="-gneE31_0" departPos="5.10" departSpeed="0.00" departDelay="0.00" arrival="209.00" arrivalLane="gneE28_0" arrivalPos="216.45" arrivalSpeed="13.96" duration="84.00" routeLength="503.77" waitingTime="30.00" waitingCount="1" stopTime="0.00" timeLoss="47.99" rerouteNo="0" devices="tripinfo_125" vType="DEFAULT_VEHTYPE" speedFactor="1.06" vaporized=""/>
    <tripinfo id="131" depart="132.00" departLane="-gneE34_0" departPos="5.10" departSpeed="0.00" departDelay="1.00" arrival="210.00" arrivalLane="-gneE2_0" arrivalPos="185.60" arrivalSpeed="12.52" duration="78.00" routeLength="375.13" waitingTime="30.00" waitingCount="2" stopTime="0.00" timeLoss="49.12" rerouteNo="0" devices="tripinfo_131" vType="DEFAULT_VEHTYPE" speedFactor="0.96" vaporized=""/>
    <tripinfo id="57" depart="62.00" departLane="gneE4_0" departPos="5.10" departSpeed="0.00" departDelay="5.00" arrival="215.00" arrivalLane="gneE34_0" arrivalPos="85.60" arrivalSpeed="14.34" duration="153.00" routeLength="664.18" waitingTime="74.00" waitingCount="3" stopTime="0.00" timeLoss="104.08" rerouteNo="0" devices="tripinfo_57" vType="DEFAULT_VEHTYPE" speedFactor="1.04" vaporized=""/>
    <tripinfo id="70" depart="70.00" departLane="-gneE8_0" departPos="5.10" departSpeed="0.00" departDelay="0.00" arrival="217.00" arrivalLane="gneE12_0" arrivalPos="85.60" arrivalSpeed="7.35" duration="147.00" routeLength="469.76" waitingTime="91.00" waitingCount="2" stopTime="0.00" timeLoss="112.30" rerouteNo="0" devices="tripinfo_70" vType="DEFAULT_VEHTYPE" speedFactor="1.02" vaporized=""/>
    <tripinfo id="161" depart="162.00" departLane="gneE3_0" departPos="5.10" departSpeed="0.00" departDelay="1.00" arrival="218.00" arrivalLane="gneE36_0" arrivalPos="292.80" arrivalSpeed="12.94" duration="56.00" routeLength="582.12" waitingTime="0.00" waitingCount="0" stopTime="0.00" timeLoss="11.97" rerouteNo="0" devices="tripinfo_161" vType="DEFAULT_VEHTYPE" speedFactor="0.99" vaporized=""/>
    <tripinfo id="169" depart="169.00" departLane="-gneE7_0" departPos="5.10" departSpeed="0.00" departDelay="0.00" arrival="218.00" arrivalLane="-gneE3_0" arrivalPos="185.60" arrivalSpeed="14.37" duration="49.00" routeLength="475.02" waitingTime="4.00" waitingCount="1" stopTime="0.00" timeLoss="15.28" rerouteNo="0" devices="tripinfo_169" vType="DEFAULT_VEHTYPE" speedFactor="1.06" vaporized=""/>
    <tripinfo id="105" depart="105.00" departLane="-gneE28_0" departPos="5.10" departSpeed="0.00" departDelay="0.00" arrival="220.00" arrivalLane="gneE3_0" arrivalPos="185.60" arrivalSpeed="13.78" duration="115.00" routeLength="993.79" waitingTime="22.00" waitingCount="1" stopTime="0.00" timeLoss="42.39" rerouteNo="0" devices="tripinfo_105" vType="DEFAULT_VEHTYPE" speedFactor="1.03" vaporized=""/>
    <tripinfo id="54" depart="54.00" departLane="-gneE7_0" departPos="5.10" departSpeed="0.00" departDelay="0.00" arrival="228.00" arrivalLane="gneE7_0" arrivalPos="92.80" arrivalSpeed="6.54" duration="174.00" routeLength="964.38" waitingTime="64.00" waitingCount="3" stopTime="0.00" timeLoss="104.18" rerouteNo="0" devices="tripinfo_54" vType="DEFAULT_VEHTYPE" speedFactor="1.03" vaporized=""/>
    <tripinfo id="160" depart="160.00" departLane="gneE35_0" departPos="5.10" departSpeed="0.00" departDelay="0.00" arrival="231.00" arrivalLane="gneE8_0" arrivalPos="85.60" arrivalSpeed="13.00" duration="71.00" routeLength="776.75" waitingTime="0.00" waitingCount="0" stopTime="0.00" timeLoss="13.24" rerouteNo="0" devices="tripinfo_160" vType="DEFAULT_VEHTYPE" speedFactor="1.00" vaporized=""/>
    <tripinfo id="112" depart="112.00" departLane="-gneE12_0" departPos="5.10" departSpeed="0.00" departDelay="0.00" arrival="235.00" arrivalLane="gneE14_0" arrivalPos="89.60" arrivalSpeed="12.83" duration="123.00" routeLength="668.38" waitingTime="54.00" waitingCount="2" stopTime="0.00" timeLoss="72.81" rerouteNo="0" devices="tripinfo_112" vType="DEFAULT_VEHTYPE" speedFactor="1.00" vaporized=""/>
    <tripinfo id="114" depart="116.00" departLane="-gneE22_0" departPos="5.10" departSpeed="0.00" departDelay="2.00" arrival="235.00" arrivalLane="gneE7_0" arrivalPos="92.80" arrivalSpeed="7.18" duration="119.00" routeLength="1064.17" waitingTime="7.00" waitingCount="1" stopTime="0.00" timeLoss="39.64" rerouteNo="0" devices="tripinfo_114" vType="DEFAULT_VEHTYPE" speedFactor="1.01" vaporized=""/>
    <tripinfo id="194" depart="194.00" departLane="gneE6_0" departPos="5.10" departSpeed="0.00" departDelay="0.00" arrival="235.00" arrivalLane="gneE23_0" arrivalPos="89.60" arrivalSpeed="15.84" duration="41.00" routeLength="284.60" waitingTime="13.00" waitingCount="1" stopTime="0.00" timeLoss="22.43" rerouteNo="0" devices="tripinfo_194" vType="DEFAULT_VEHTYPE" speedFactor="1.16" vaporized=""/>
    <tripinfo id="118" depart="118.00" departLane="gneE38_0" departPos="5.10" departSpeed="0.00" departDelay="0.00" arrival="236.00" arrivalLane="-gneE24_0" arrivalPos="85.60" arrivalSpeed="12.31" duration="118.00" routeLength="683.56" waitingTime="39.00" waitingCount="2" stopTime="0.00" timeLoss="60.39" rerouteNo="0" devices="tripinfo_118" vType="DEFAULT_VEHTYPE" speedFactor="0.89" vaporized=""/>
    <tripinfo id="163" depart="163.00" departLane="-gneE32_0" departPos="5.10" departSpeed="0.00" departDelay="0.00" arrival="237.00" arrivalLane="gneE5_0" arrivalPos="85.60" arrivalSpeed="12.85" duration="74.00" routeLength="708.38" waitingTime="0.00" waitingCount="0" stopTime="0.00" timeLoss="18.41" rerouteNo="0" devices="tripinfo_163" vType="DEFAULT_VEHTYPE" speedFactor="0.94" vaporized=""/>
    <tripinfo id="111" depart="115.00" departLane="gneE10_0" departPos="5.10" departSpeed="0.00" departDelay="4.00" arrival="240.00" arrivalLane="gneE27_0" arrivalPos="92.80" arrivalSpeed="13.29" duration="125.00" routeLength="486.53" waitingTime="71.00" waitingCount="2" stopTime="0.00" timeLoss="88.53" rerouteNo="0" devices="tripinfo_111" vType="DEFAULT_VEHTYPE" speedFactor="0.98" vaporized=""/>
    <tripinfo id="50" depart="50.00" departLane="-gneE1_0" departPos="5.10" departSpeed="0.00" departDelay="0.00" arrival="247.00" arrivalLane="gneE26_0" arrivalPos="92.80" arrivalSpeed="13.45" duration="197.00" routeLength="876.85" waitingTime="92.00" waitingCount="4" stopTime="0.00" timeLoss="129.06" rerouteNo="0" devices="tripinfo_50" vType="DEFAULT_VEHTYPE" speedFactor="0.97" vaporized=""/>
    <tripinfo id="172" depart="172.00" departLane="-gneE32_0" departPos="5.10" departSpeed="0.00" departDelay="0.00" arrival="247.00" arrivalLane="gneE34_0" arrivalPos="85.60" arrivalSpeed="14.12" duration="75.00" routeLength="803.22" waitingTime="0.00" waitingCount="0" stopTime="0.00" timeLoss="16.13" rerouteNo="0" devices="tripinfo_172" vType="DEFAULT_VEHTYPE" speedFactor="1.03" vaporized=""/>
    <tripinfo id="93" depart="93.00" departLane="gneE35_0" departPos="5.10" departSpeed="0.00" departDelay="0.00" arrival="249.00" arrivalLane="-gneE24_0" arrivalPos="85.60" arrivalSpeed="13.17" duration="156.00" routeLength="982.01" waitingTime="53.00" waitingCount="3" stopTime="0.00" timeLoss="84.21" rerouteNo="0" devices="tripinfo_93" vType="DEFAULT_VEHTYPE" speedFactor="1.02" vaporized=""/>
    <tripinfo id="40" depart="40.00" departLane="gneE11_0" departPos="5.10" departSpeed="0.00" departDelay="0.00" arrival="252.00" arrivalLane="-gneE25_0" arrivalPos="92.80" arrivalSpeed="14.83" duration="212.00" routeLength="1067.97" waitingTime="105.00" waitingCount="3" stopTime="0.00" timeLoss="142.61" rerouteNo="0" devices="tripinfo_40" vType="DEFAULT_VEHTYPE" speedFactor="1.13" vaporized=""/>
    <tripinfo id="113" depart="113.00" departLane="gneE0_0" departPos="5.10" departSpeed="0.00" departDelay="0.00" arrival="254.00" arrivalLane="gneE33_0" arrivalPos="98.02" arrivalSpeed="14.14" duration="141.00" routeLength="1108.40" waitingTime="15.00" waitingCount="2" stopTime="0.00" timeLoss="61.23" rerouteNo="0" devices="tripinfo_113" vType="DEFAULT_VEHTYPE" speedFactor="1.04" vaporized=""/>
    <tripinfo id="178" depart="178.00" departLane="gneE7_0" departPos="5.10" departSpeed="0.00" departDelay="0.00" arrival="256.00" arrivalLane="-gneE25_0" arrivalPos="92.80" arrivalSpeed="14.08" duration="78.00" routeLength="384.16" waitingTime="30.00" waitingCount="2" stopTime="0.00" timeLoss="49.11" rerouteNo="0" devices="tripinfo_178" vType="DEFAULT_VEHTYPE" speedFactor="1.03" vaporized=""/>
    <tripinfo id="145" depart="145.00" departLane="-gneE1_0" departPos="5.10" departSpeed="0.00" departDelay="0.00" arrival="275.00" arrivalLane="gneE29_0" arrivalPos="98.02" arrivalSpeed="11.43" duration="130.00" routeLength="991.32" waitingTime="15.00" waitingCount="2" stopTime="0.00" timeLoss="42.91" rerouteNo="0" devices="tripinfo_145" vType="DEFAULT_VEHTYPE" speedFactor="0.87" vaporized=""/>
    <tripinfo id="139" depart="139.00" departLane="-gneE29_0" departPos="5.10" departSpeed="0.00" departDelay="0.00" arrival="295.00" arrivalLane="gneE17_0" arrivalPos="92.80" arrivalSpeed="13.89" duration="156.00" routeLength="814.66" waitingTime="77.00" waitingCount="1" stopTime="0.00" timeLoss="95.09" rerouteNo="0" devices="tripinfo_139" vType="DEFAULT_VEHTYPE" speedFactor="1.03" vaporized=""/>
    <tripinfo id="240" depart="240.00" departLane="-gneE36_0" departPos="5.10" departSpeed="0.00" departDelay="0.00" arrival="300.00" arrivalLane="-gneE0_0" arrivalPos="92.80" arrivalSpeed="12.74" duration="60.00" routeLength="689.32" waitingTime="0.00" waitingCount="0" stopTime="0.00" timeLoss="9.28" rerouteNo="0" devices="tripinfo_240" vType="DEFAULT_VEHTYPE" speedFactor="1.00" vaporized=""/>
    <tripinfo id="302" depart="302.00" departLane="gneE21_0" departPos="5.10" departSpeed="0.00" departDelay="0.00" arrival="313.00" arrivalLane="gneE21_0" arrivalPos="87.62" arrivalSpeed="9.71" duration="11.00" routeLength="82.52" waitingTime="0.00" waitingCount="0" stopTime="0.00" timeLoss="4.80" rerouteNo="0" devices="tripinfo_302" vType="DEFAULT_VEHTYPE" speedFactor="1.00" vaporized=""/>